# bash/exports
# ---
# github.com/rafi/.config
# References:
# - https://github.com/milomouse/dotfiles
# - https://github.com/EvanPurkhiser/dots-personal
# - https://github.com/davidosomething/dotfiles
# - https://wiki.archlinux.org/index.php/XDG_Base_Directory_support

# XDG directories
export XDG_CONFIG_HOME="$HOME/.config"
export  XDG_CACHE_HOME="$HOME/.cache"
export   XDG_DATA_HOME="$HOME/.local/share"

# macOS
if [[ "$OSTYPE" == "darwin"* ]]; then
	export PREFIX=/usr/local
	export BROWSER=open
	export XINITRC="$XDG_CONFIG_HOME"/xorg/xinitrc_osx
	export XDG_RUNTIME_DIR="/tmp/run"
	[ -d "$XDG_RUNTIME_DIR" ] || mkdir -m 0700 -p "$XDG_RUNTIME_DIR"

	PATH=/usr/local/bin:/usr/bin:/bin:/usr/sbin:/sbin:/opt/X11/bin

	# Python per user site-packages directory
	# PATH="$PATH:$HOME/Library/Python/3.7/bin"
	# PATH="$PATH:$HOME/Library/Python/2.7/bin"

# Linux
else
	export PREFIX=/usr
	export BROWSER=/usr/bin/google-chrome-stable
	export XAUTHORITY="$XDG_CACHE_HOME/Xauthority"
	export XINITRC="$XDG_CONFIG_HOME"/xorg/xinitrc

	# Python per user site-packages directory
	# PATH="$PATH:$HOME/.local/lib/python3.7/bin"
	# PATH="$PATH:$HOME/.local/lib/python2.7/bin"

	# Set the systemd-style DBUS address
	# export DBUS_SESSION_BUS_ADDRESS=unix:path=$XDG_RUNTIME_DIR/bus
fi

# Local bin
PATH="$HOME/.local/bin:$PATH:bin"

# Editor and pager
EDITOR=vim
if hash nvim 2>/dev/null; then
	export MANPAGER='nvim +Man!'
	EDITOR=nvim
fi
export EDITOR
export VISUAL="$EDITOR"

export PAGER=less
export LESS="-FiQMXR"
export LESSCHARSET="UTF-8"

# Forces QT to use GTK icons
export DESKTOP_SESSION=gnome
# https://github.com/zealdocs/zeal/issues/172
export QT_QPA_PLATFORMTHEME=gnome

# Pull GTK2 RC files from the standard config location, similar to gtk-3.0
[ -e /etc/gtk-2.0 ] && export GTK2_RC_FILES="$XDG_CONFIG_HOME/gtk-2.0/gtkrc"

# Set the session ssh-agent socket path (If it's not set)
[ -z "$SSH_AUTH_SOCK" ] && export SSH_AUTH_SOCK="$XDG_RUNTIME_DIR/ssh-agent"

# Look for terminfo files under data
if [ -d "$XDG_DATA_HOME/terminfo" ]; then
	export TERMINFO="$XDG_DATA_HOME/terminfo"
	export TERMINFO_DIRS="$XDG_DATA_HOME/terminfo:$PREFIX/share/terminfo"
fi

export ZPLUG_HOME="$PREFIX/opt/zplug"
export ZPLUG_REPOS="$XDG_DATA_HOME/zplug/repos"
export ZPLUG_CACHE_DIR="$XDG_CACHE_HOME/zplug"
export INPUTRC="$XDG_CONFIG_HOME/bash/inputrc"
export RXVT_SOCKET="$XDG_RUNTIME_DIR/urxvtd"
export GNUPGHOME="$XDG_CONFIG_HOME/gnupg"
export PASSWORD_STORE_DIR="$HOME/docs/pass/"
export PACKER_CACHE_DIR="$XDG_CACHE_HOME/packer"
export COMPOSER_HOME="$XDG_CACHE_HOME/composer"
export MPDCRON_DIR="$XDG_CONFIG_HOME/mpdcron"
export URXVT_PERL_LIB="$XDG_CONFIG_HOME/urxvt/ext"
export MAD_CONFIG="$XDG_CONFIG_HOME/mad/config"
export WEGORC="$XDG_CONFIG_HOME/wego/config"
export MEMO_HOME="$HOME/docs/books/"
export MYSQL_HISTFILE="$XDG_CACHE_HOME/mysql_history"
export LESSHISTFILE="$XDG_CACHE_HOME/less_history"
export LESSKEY="$XDG_CONFIG_HOME/lesskey/output"
export WAKATIME_HOME="$XDG_DATA_HOME/wakatime"
export BABEL_CACHE_PATH="$XDG_CACHE_HOME/babel.json"
export _Z_DATA="$XDG_CACHE_HOME/z/data"
export _ZL_DATA="$_Z_DATA"
export _ZO_DATA_DIR="$XDG_CACHE_HOME/zoxide"

hash bspwm      2>/dev/null && export      BSPWM_SOCKET="$XDG_RUNTIME_DIR/bswpm-socket"
hash http       2>/dev/null && export HTTPIE_CONFIG_DIR="$XDG_CONFIG_HOME/httpie"
hash wget       2>/dev/null && export            WGETRC="$XDG_CONFIG_HOME/wget/config"
hash gimp       2>/dev/null && export   GIMP2_DIRECTORY="$XDG_CONFIG_HOME/gimp-2.8"
hash virtualbox 2>/dev/null && export    VBOX_USER_HOME="$XDG_CONFIG_HOME/virtualbox"
hash mplayer    2>/dev/null && export      MPLAYER_HOME="$XDG_CONFIG_HOME/mplayer"
hash mpv        2>/dev/null && export          MPV_HOME="$XDG_CONFIG_HOME/mpv"
hash vagrant    2>/dev/null && export      VAGRANT_HOME="$XDG_DATA_HOME/vagrant"
hash sshrc      2>/dev/null && export           SSHHOME="$XDG_CONFIG_HOME/sshrc"

if hash fzf 2>/dev/null
then
	export FZF_DEFAULT_OPTS="--bind=ctrl-d:page-down,ctrl-u:page-up,ctrl-y:yank,tab:down,btab:up --inline-info --reverse --height 50%"
	export FZF_DEFAULT_COMMAND='ag -U --hidden --follow --nogroup --nocolor -g ""'
fi

# See: https://github.com/tmux-python/tmuxp
export TMUXP_CONFIGDIR="$XDG_CONFIG_HOME/tmuxp"

# Android SDK and tools
if [ -d "${HOME}/Library/Android/sdk" ]; then
	export ANDROID_HOME="${HOME}/Library/Android/sdk"
	PATH="${PATH}:${ANDROID_HOME}/tools"
	PATH="${PATH}:${ANDROID_HOME}/platform-tools"
fi

# Google Cloud SDK
if [ -d "/usr/local/Caskroom/google-cloud-sdk" ]; then
	source "/usr/local/Caskroom/google-cloud-sdk/latest/google-cloud-sdk/path.bash.inc"
	source "/usr/local/Caskroom/google-cloud-sdk/latest/google-cloud-sdk/completion.bash.inc"
elif [ -d "${XDG_DATA_HOME}/google-cloud-sdk/bin" ]; then
	PATH="${PATH}:${XDG_DATA_HOME}/google-cloud-sdk/bin"
fi

# Python
# Pending: https://github.com/python/cpython/pull/13208
export PYTHONHISTORY="$XDG_CACHE_HOME/python_history"
# Pyenv paths
export PYENV_ROOT="${XDG_DATA_HOME}/python/pyenv"
PATH="${PYENV_ROOT}/bin:${PATH}"
# Disable virtualenv's prompt display
export VIRTUAL_ENV_DISABLE_PROMPT=1
# Python utilities
export PYLINTHOME="$XDG_CACHE_HOME/pylint"
export IPYTHONDIR="$XDG_CONFIG_HOME"/ipython
#export JUPYTER_CONFIG_DIR="$XDG_CONFIG_HOME"/jupyter
# Virtualenv managers
export WORKON_HOME="$XDG_DATA_HOME/python/envs"
export POETRY_VIRTUALENVS_PATH="$WORKON_HOME"
export PIPSI_HOME="$WORKON_HOME"
export PIPX_HOME="$WORKON_HOME"

# PostgreSQL CLI utilities
export PSQLRC="$XDG_CONFIG_HOME/psql/config"
#export PGCLIRC="$XDG_CONFIG_HOME/pgcli/config"

# Editors
export ATOM_HOME="$XDG_DATA_HOME"/atom
export ANDROID_SDK_HOME="$XDG_DATA_HOME"/android

# Databases
export SQLITE_HISTORY="$XDG_CACHE_HOME/sqlite_history"

# Ops
hash minikube 2>/dev/null && export MINIKUBE_HOME="$XDG_DATA_HOME/minikube"
if hash kubectl 2>/dev/null; then
	export KUBECONFIG="$XDG_CONFIG_HOME/kube/config.yml"
	export KREW_ROOT="$XDG_DATA_HOME/krew"
	PATH="${KREW_ROOT:-$HOME/.krew}/bin:$PATH"
fi

# DISABLED Set luarocks user config
# hash luarocks 2>/dev/null && export LUAROCKS_CONFIG="$XDG_CONFIG_HOME/luarocks/config.lua"

# GO configuration
if hash go 2>/dev/null; then
	export GOPATH="$XDG_DATA_HOME"/go
	PATH="$PATH:$GOPATH/bin"
fi

# Node NPM tool configuration
if hash npm 2>/dev/null; then
	export NPM_CONFIG_USERCONFIG="$XDG_CONFIG_HOME/npm/npmrc"
	PATH="$PATH:${XDG_DATA_HOME}/npm/bin"
fi

# Rust Cargo configuration
if [ -d "$XDG_DATA_HOME"/cargo ]; then
	export RUSTUP_HOME="$XDG_DATA_HOME"/rustup
	export CARGO_HOME="$XDG_DATA_HOME"/cargo
	PATH="$XDG_DATA_HOME/cargo/bin:$PATH"
fi

# CPAN configuration
if hash cpan 2>/dev/null; then
	export PERL5LIB="$HOME/.local/lib/perl5${PERL5LIB+:}${PERL5LIB}"
	export PERL_LOCAL_LIB_ROOT="$HOME/.local${PERL_LOCAL_LIB_ROOT+:}${PERL_LOCAL_LIB_ROOT}"
	export PERL_MB_OPT="--install_base \"$HOME/.local\""
	export PERL_MM_OPT="INSTALL_BASE=$HOME/.local"
	hash cpanm 2>/dev/null && export PERL_CPANM_OPT="-l $HOME/.local"
fi

# Always install ruby gems local to the user
if hash gem 2>/dev/null; then
	if [ -d "$PREFIX/opt/ruby/bin" ]; then
		PATH="$PREFIX/opt/ruby/bin:$PATH"
	fi
	export GEMRC="$XDG_CONFIG_HOME/gemrc/config"
	export GEM_SPEC_CACHE="$XDG_CACHE_HOME/gem/specs"
	# export GEM_HOME="$HOME/.local/lib/ruby/gems/$(ruby -e 'puts RbConfig::CONFIG["ruby_version"]')"
	# PATH="$PATH:$GEM_HOME/bin"
fi

# Ack configuration
if hash ack 2> /dev/null; then
	export ACKRC="$XDG_CONFIG_HOME/ack/ackrc"
	export ACK_PAGER_COLOR="less -x4SRFX"
fi

# cURL .netrc location
if [ -d "$HOME/docs/netrc" ]; then
	export CURLOPT_NETRC_FILE="$HOME/docs/netrc/config"
fi

# Haskell cabal configuration
if hash cabal 2>/dev/null; then
	PATH="$PATH:$HOME/.cabal/bin"
fi

# Task warrior configuration
if hash task 2>/dev/null
then
	export TASKRC="$XDG_CONFIG_HOME/task/config"
	export TASKDATA="$XDG_DATA_HOME/task"
fi

# aria2c cli helper
if hash diana 2>/dev/null; then
	export DIANA_SECRET_TOKEN={{ DIANA_TOKEN }}
	export DIANA_HOST=file.host
fi

# nextword https://github.com/high-moctane/nextword
export NEXTWORD_DATA_PATH="$XDG_DATA_HOME/nextword"

# Remote/local MPD host
export MPD_HOST="music.host"

# Homebrew token
export GITHUB_TOKEN="{{ GITHUB_TOKEN }}"
export HOMEBREW_GITHUB_API_TOKEN="{{ HOMEBREW_GITHUB_API_TOKEN }}"

# Spotify
export TMUX_SPOTIFY_API_KEY="{{ TMUX_SPOTIFY_API_KEY }}"

# Export the final PATH
export PATH

# vim: set ft=sh ts=2 sw=2 tw=80 noet :
